<?xml version="1.0"?>
<VTKFile type="UnstructuredGrid" version="0.1" byte_order="LittleEndian">
<UnstructuredGrid>
<Piece NumberOfPoints="1681" NumberOfCells="1600">
<Points>
<DataArray type="Float32" Name="Position" NumberOfComponents="3" format="ascii">
0.000000e+00 0.000000e+00 0.000000e+00 
 3.000000e+01 0.000000e+00 0.000000e+00 
 3.000000e+01 3.000000e+01 0.000000e+00 
 0.000000e+00 3.000000e+01 0.000000e+00 
 7.500000e-01 3.000000e+01 0.000000e+00 
 1.500000e+00 3.000000e+01 0.000000e+00 
 2.250000e+00 3.000000e+01 0.000000e+00 
 3.000000e+00 3.000000e+01 0.000000e+00 
 3.750000e+00 3.000000e+01 0.000000e+00 
 4.500000e+00 3.000000e+01 0.000000e+00 
 5.250000e+00 3.000000e+01 0.000000e+00 
 6.000000e+00 3.000000e+01 0.000000e+00 
 6.750000e+00 3.000000e+01 0.000000e+00 
 7.500000e+00 3.000000e+01 0.000000e+00 
 8.250000e+00 3.000000e+01 0.000000e+00 
 9.000000e+00 3.000000e+01 0.000000e+00 
 9.750000e+00 3.000000e+01 0.000000e+00 
 1.050000e+01 3.000000e+01 0.000000e+00 
 1.125000e+01 3.000000e+01 0.000000e+00 
 1.200000e+01 3.000000e+01 0.000000e+00 
 1.275000e+01 3.000000e+01 0.000000e+00 
 1.350000e+01 3.000000e+01 0.000000e+00 
 1.425000e+01 3.000000e+01 0.000000e+00 
 1.500000e+01 3.000000e+01 0.000000e+00 
 1.575000e+01 3.000000e+01 0.000000e+00 
 1.650000e+01 3.000000e+01 0.000000e+00 
 1.725000e+01 3.000000e+01 0.000000e+00 
 1.800000e+01 3.000000e+01 0.000000e+00 
 1.875000e+01 3.000000e+01 0.000000e+00 
 1.950000e+01 3.000000e+01 0.000000e+00 
 2.025000e+01 3.000000e+01 0.000000e+00 
 2.100000e+01 3.000000e+01 0.000000e+00 
 2.175000e+01 3.000000e+01 0.000000e+00 
 2.250000e+01 3.000000e+01 0.000000e+00 
 2.325000e+01 3.000000e+01 0.000000e+00 
 2.400000e+01 3.000000e+01 0.000000e+00 
 2.475000e+01 3.000000e+01 0.000000e+00 
 2.550000e+01 3.000000e+01 0.000000e+00 
 2.625000e+01 3.000000e+01 0.000000e+00 
 2.700000e+01 3.000000e+01 0.000000e+00 
 2.775000e+01 3.000000e+01 0.000000e+00 
 2.850000e+01 3.000000e+01 0.000000e+00 
 2.925000e+01 3.000000e+01 0.000000e+00 
 3.000000e+01 2.925000e+01 0.000000e+00 
 3.000000e+01 2.850000e+01 0.000000e+00 
 3.000000e+01 2.775000e+01 0.000000e+00 
 3.000000e+01 2.700000e+01 0.000000e+00 
 3.000000e+01 2.625000e+01 0.000000e+00 
 3.000000e+01 2.550000e+01 0.000000e+00 
 3.000000e+01 2.475000e+01 0.000000e+00 
 3.000000e+01 2.400000e+01 0.000000e+00 
 3.000000e+01 2.325000e+01 0.000000e+00 
 3.000000e+01 2.250000e+01 0.000000e+00 
 3.000000e+01 2.175000e+01 0.000000e+00 
 3.000000e+01 2.100000e+01 0.000000e+00 
 3.000000e+01 2.025000e+01 0.000000e+00 
 3.000000e+01 1.950000e+01 0.000000e+00 
 3.000000e+01 1.875000e+01 0.000000e+00 
 3.000000e+01 1.800000e+01 0.000000e+00 
 3.000000e+01 1.725000e+01 0.000000e+00 
 3.000000e+01 1.650000e+01 0.000000e+00 
 3.000000e+01 1.575000e+01 0.000000e+00 
 3.000000e+01 1.500000e+01 0.000000e+00 
 3.000000e+01 1.425000e+01 0.000000e+00 
 3.000000e+01 1.350000e+01 0.000000e+00 
 3.000000e+01 1.275000e+01 0.000000e+00 
 3.000000e+01 1.200000e+01 0.000000e+00 
 3.000000e+01 1.125000e+01 0.000000e+00 
 3.000000e+01 1.050000e+01 0.000000e+00 
 3.000000e+01 9.750000e+00 0.000000e+00 
 3.000000e+01 9.000000e+00 0.000000e+00 
 3.000000e+01 8.250000e+00 0.000000e+00 
 3.000000e+01 7.500000e+00 0.000000e+00 
 3.000000e+01 6.750000e+00 0.000000e+00 
 3.000000e+01 6.000000e+00 0.000000e+00 
 3.000000e+01 5.250000e+00 0.000000e+00 
 3.000000e+01 4.500000e+00 0.000000e+00 
 3.000000e+01 3.750000e+00 0.000000e+00 
 3.000000e+01 3.000000e+00 0.000000e+00 
 3.000000e+01 2.250000e+00 0.000000e+00 
 3.000000e+01 1.500000e+00 0.000000e+00 
 3.000000e+01 7.500000e-01 0.000000e+00 
 2.925000e+01 0.000000e+00 0.000000e+00 
 2.850000e+01 0.000000e+00 0.000000e+00 
 2.775000e+01 0.000000e+00 0.000000e+00 
 2.700000e+01 0.000000e+00 0.000000e+00 
 2.625000e+01 0.000000e+00 0.000000e+00 
 2.550000e+01 0.000000e+00 0.000000e+00 
 2.475000e+01 0.000000e+00 0.000000e+00 
 2.400000e+01 0.000000e+00 0.000000e+00 
 2.325000e+01 0.000000e+00 0.000000e+00 
 2.250000e+01 0.000000e+00 0.000000e+00 
 2.175000e+01 0.000000e+00 0.000000e+00 
 2.100000e+01 0.000000e+00 0.000000e+00 
 2.025000e+01 0.000000e+00 0.000000e+00 
 1.950000e+01 0.000000e+00 0.000000e+00 
 1.875000e+01 0.000000e+00 0.000000e+00 
 1.800000e+01 0.000000e+00 0.000000e+00 
 1.725000e+01 0.000000e+00 0.000000e+00 
 1.650000e+01 0.000000e+00 0.000000e+00 
 1.575000e+01 0.000000e+00 0.000000e+00 
 1.500000e+01 0.000000e+00 0.000000e+00 
 1.425000e+01 0.000000e+00 0.000000e+00 
 1.350000e+01 0.000000e+00 0.000000e+00 
 1.275000e+01 0.000000e+00 0.000000e+00 
 1.200000e+01 0.000000e+00 0.000000e+00 
 1.125000e+01 0.000000e+00 0.000000e+00 
 1.050000e+01 0.000000e+00 0.000000e+00 
 9.750000e+00 0.000000e+00 0.000000e+00 
 9.000000e+00 0.000000e+00 0.000000e+00 
 8.250000e+00 0.000000e+00 0.000000e+00 
 7.500000e+00 0.000000e+00 0.000000e+00 
 6.750000e+00 0.000000e+00 0.000000e+00 
 6.000000e+00 0.000000e+00 0.000000e+00 
 5.250000e+00 0.000000e+00 0.000000e+00 
 4.500000e+00 0.000000e+00 0.000000e+00 
 3.750000e+00 0.000000e+00 0.000000e+00 
 3.000000e+00 0.000000e+00 0.000000e+00 
 2.250000e+00 0.000000e+00 0.000000e+00 
 1.500000e+00 0.000000e+00 0.000000e+00 
 7.500000e-01 0.000000e+00 0.000000e+00 
 0.000000e+00 7.500000e-01 0.000000e+00 
 0.000000e+00 1.500000e+00 0.000000e+00 
 0.000000e+00 2.250000e+00 0.000000e+00 
 0.000000e+00 3.000000e+00 0.000000e+00 
 0.000000e+00 3.750000e+00 0.000000e+00 
 0.000000e+00 4.500000e+00 0.000000e+00 
 0.000000e+00 5.250000e+00 0.000000e+00 
 0.000000e+00 6.000000e+00 0.000000e+00 
 0.000000e+00 6.750000e+00 0.000000e+00 
 0.000000e+00 7.500000e+00 0.000000e+00 
 0.000000e+00 8.250000e+00 0.000000e+00 
 0.000000e+00 9.000000e+00 0.000000e+00 
 0.000000e+00 9.750000e+00 0.000000e+00 
 0.000000e+00 1.050000e+01 0.000000e+00 
 0.000000e+00 1.125000e+01 0.000000e+00 
 0.000000e+00 1.200000e+01 0.000000e+00 
 0.000000e+00 1.275000e+01 0.000000e+00 
 0.000000e+00 1.350000e+01 0.000000e+00 
 0.000000e+00 1.425000e+01 0.000000e+00 
 0.000000e+00 1.500000e+01 0.000000e+00 
 0.000000e+00 1.575000e+01 0.000000e+00 
 0.000000e+00 1.650000e+01 0.000000e+00 
 0.000000e+00 1.725000e+01 0.000000e+00 
 0.000000e+00 1.800000e+01 0.000000e+00 
 0.000000e+00 1.875000e+01 0.000000e+00 
 0.000000e+00 1.950000e+01 0.000000e+00 
 0.000000e+00 2.025000e+01 0.000000e+00 
 0.000000e+00 2.100000e+01 0.000000e+00 
 0.000000e+00 2.175000e+01 0.000000e+00 
 0.000000e+00 2.250000e+01 0.000000e+00 
 0.000000e+00 2.325000e+01 0.000000e+00 
 0.000000e+00 2.400000e+01 0.000000e+00 
 0.000000e+00 2.475000e+01 0.000000e+00 
 0.000000e+00 2.550000e+01 0.000000e+00 
 0.000000e+00 2.625000e+01 0.000000e+00 
 0.000000e+00 2.700000e+01 0.000000e+00 
 0.000000e+00 2.775000e+01 0.000000e+00 
 0.000000e+00 2.850000e+01 0.000000e+00 
 0.000000e+00 2.925000e+01 0.000000e+00 
 7.500000e-01 7.500000e-01 0.000000e+00 
 1.500000e+00 7.500000e-01 0.000000e+00 
 2.250000e+00 7.500000e-01 0.000000e+00 
 3.000000e+00 7.500000e-01 0.000000e+00 
 3.750000e+00 7.500000e-01 0.000000e+00 
 4.500000e+00 7.500000e-01 0.000000e+00 
 5.250000e+00 7.500000e-01 0.000000e+00 
 6.000000e+00 7.500000e-01 0.000000e+00 
 6.750000e+00 7.500000e-01 0.000000e+00 
 7.500000e+00 7.500000e-01 0.000000e+00 
 8.250000e+00 7.500000e-01 0.000000e+00 
 9.000000e+00 7.500000e-01 0.000000e+00 
 9.750000e+00 7.500000e-01 0.000000e+00 
 1.050000e+01 7.500000e-01 0.000000e+00 
 1.125000e+01 7.500000e-01 0.000000e+00 
 1.200000e+01 7.500000e-01 0.000000e+00 
 1.275000e+01 7.500000e-01 0.000000e+00 
 1.350000e+01 7.500000e-01 0.000000e+00 
 1.425000e+01 7.500000e-01 0.000000e+00 
 1.500000e+01 7.500000e-01 0.000000e+00 
 1.575000e+01 7.500000e-01 0.000000e+00 
 1.650000e+01 7.500000e-01 0.000000e+00 
 1.725000e+01 7.500000e-01 0.000000e+00 
 1.800000e+01 7.500000e-01 0.000000e+00 
 1.875000e+01 7.500000e-01 0.000000e+00 
 1.950000e+01 7.500000e-01 0.000000e+00 
 2.025000e+01 7.500000e-01 0.000000e+00 
 2.100000e+01 7.500000e-01 0.000000e+00 
 2.175000e+01 7.500000e-01 0.000000e+00 
 2.250000e+01 7.500000e-01 0.000000e+00 
 2.325000e+01 7.500000e-01 0.000000e+00 
 2.400000e+01 7.500000e-01 0.000000e+00 
 2.475000e+01 7.500000e-01 0.000000e+00 
 2.550000e+01 7.500000e-01 0.000000e+00 
 2.625000e+01 7.500000e-01 0.000000e+00 
 2.700000e+01 7.500000e-01 0.000000e+00 
 2.775000e+01 7.500000e-01 0.000000e+00 
 2.850000e+01 7.500000e-01 0.000000e+00 
 2.925000e+01 7.500000e-01 0.000000e+00 
 7.500000e-01 1.500000e+00 0.000000e+00 
 1.500000e+00 1.500000e+00 0.000000e+00 
 2.250000e+00 1.500000e+00 0.000000e+00 
 3.000000e+00 1.500000e+00 0.000000e+00 
 3.750000e+00 1.500000e+00 0.000000e+00 
 4.500000e+00 1.500000e+00 0.000000e+00 
 5.250000e+00 1.500000e+00 0.000000e+00 
 6.000000e+00 1.500000e+00 0.000000e+00 
 6.750000e+00 1.500000e+00 0.000000e+00 
 7.500000e+00 1.500000e+00 0.000000e+00 
 8.250000e+00 1.500000e+00 0.000000e+00 
 9.000000e+00 1.500000e+00 0.000000e+00 
 9.750000e+00 1.500000e+00 0.000000e+00 
 1.050000e+01 1.500000e+00 0.000000e+00 
 1.125000e+01 1.500000e+00 0.000000e+00 
 1.200000e+01 1.500000e+00 0.000000e+00 
 1.275000e+01 1.500000e+00 0.000000e+00 
 1.350000e+01 1.500000e+00 0.000000e+00 
 1.425000e+01 1.500000e+00 0.000000e+00 
 1.500000e+01 1.500000e+00 0.000000e+00 
 1.575000e+01 1.500000e+00 0.000000e+00 
 1.650000e+01 1.500000e+00 0.000000e+00 
 1.725000e+01 1.500000e+00 0.000000e+00 
 1.800000e+01 1.500000e+00 0.000000e+00 
 1.875000e+01 1.500000e+00 0.000000e+00 
 1.950000e+01 1.500000e+00 0.000000e+00 
 2.025000e+01 1.500000e+00 0.000000e+00 
 2.100000e+01 1.500000e+00 0.000000e+00 
 2.175000e+01 1.500000e+00 0.000000e+00 
 2.250000e+01 1.500000e+00 0.000000e+00 
 2.325000e+01 1.500000e+00 0.000000e+00 
 2.400000e+01 1.500000e+00 0.000000e+00 
 2.475000e+01 1.500000e+00 0.000000e+00 
 2.550000e+01 1.500000e+00 0.000000e+00 
 2.625000e+01 1.500000e+00 0.000000e+00 
 2.700000e+01 1.500000e+00 0.000000e+00 
 2.775000e+01 1.500000e+00 0.000000e+00 
 2.850000e+01 1.500000e+00 0.000000e+00 
[...]
<PointData Vectors="displ">
<DataArray type="Float64" Name="displ" NumberOfComponents="3" format="ascii" >
0.000000 0.000000 0.000000 
0.105000 0.000000 0.000000 
0.105000 0.000000 0.000000 
0.000000 0.000000 0.000000 
0.004195 -0.002495 0.000000 
0.007402 -0.004152 0.000000 
0.010267 -0.005524 0.000000 
0.012973 -0.006661 0.000000 
0.015585 -0.007629 0.000000 
0.018139 -0.008462 0.000000 
0.020653 -0.009182 0.000000 
0.023140 -0.009807 0.000000 
0.025610 -0.010348 0.000000 
0.028067 -0.010817 0.000000 
0.030517 -0.011221 0.000000 
0.032962 -0.011567 0.000000 
0.035405 -0.011861 0.000000 
0.037846 -0.012108 0.000000 
0.040287 -0.012310 0.000000 
0.042729 -0.012472 0.000000 
0.045171 -0.012595 0.000000 
0.047613 -0.012682 0.000000 
0.050057 -0.012733 0.000000 
0.052500 -0.012750 0.000000 
0.054943 -0.012733 0.000000 
0.057387 -0.012682 0.000000 
0.059829 -0.012595 0.000000 
0.062271 -0.012472 0.000000 
0.064713 -0.012310 0.000000 
0.067154 -0.012108 0.000000 
0.069595 -0.011861 0.000000 
0.072038 -0.011567 0.000000 
0.074483 -0.011221 0.000000 
0.076933 -0.010817 0.000000 
0.079390 -0.010348 0.000000 
0.081860 -0.009807 0.000000 
0.084347 -0.009182 0.000000 
0.086861 -0.008462 0.000000 
0.089415 -0.007629 0.000000 
0.092027 -0.006661 0.000000 
0.094733 -0.005524 0.000000 
0.097598 -0.004152 0.000000 
0.100805 -0.002495 0.000000 
0.105000 0.000000 0.000000 
0.105000 0.000000 0.000000 
0.105000 0.000000 0.000000 
0.105000 0.000000 0.000000 
0.105000 0.000000 0.000000 
0.105000 0.000000 0.000000 
0.105000 0.000000 0.000000 
0.105000 0.000000 0.000000 
0.105000 0.000000 0.000000 
0.105000 0.000000 0.000000 
0.105000 0.000000 0.000000 
0.105000 0.000000 0.000000 
0.105000 0.000000 0.000000 
0.105000 0.000000 0.000000 
0.105000 0.000000 0.000000 
0.105000 0.000000 0.000000 
0.105000 0.000000 0.000000 
0.105000 0.000000 0.000000 
0.105000 0.000000 0.000000 
0.105000 0.000000 0.000000 
0.105000 0.000000 0.000000 
0.105000 0.000000 0.000000 
0.105000 0.000000 0.000000 
0.105000 0.000000 0.000000 
0.105000 0.000000 0.000000 
0.105000 0.000000 0.000000 
0.105000 0.000000 0.000000 
0.105000 0.000000 0.000000 
0.105000 0.000000 0.000000 
0.105000 0.000000 0.000000 
0.105000 0.000000 0.000000 
0.105000 0.000000 0.000000 
0.105000 0.000000 0.000000 
0.105000 0.000000 0.000000 
0.105000 0.000000 0.000000 
0.105000 0.000000 0.000000 
0.105000 0.000000 0.000000 
0.105000 0.000000 0.000000 
0.105000 0.000000 0.000000 
0.100805 0.002495 0.000000 
0.097598 0.004152 0.000000 
0.094733 0.005524 0.000000 
0.092027 0.006661 0.000000 
0.089415 0.007629 0.000000 
0.086861 0.008462 0.000000 
0.084347 0.009182 0.000000 
0.081860 0.009807 0.000000 
0.079390 0.010348 0.000000 
0.076933 0.010817 0.000000 
0.074483 0.011221 0.000000 
0.072038 0.011567 0.000000 
0.069595 0.011861 0.000000 
0.067154 0.012108 0.000000 
0.064713 0.012310 0.000000 
0.062271 0.012472 0.000000 
0.059829 0.012595 0.000000 
0.057387 0.012682 0.000000 
0.054943 0.012733 0.000000 
0.052500 0.012750 0.000000 
0.050057 0.012733 0.000000 
0.047613 0.012682 0.000000 
0.045171 0.012595 0.000000 
0.042729 0.012472 0.000000 
0.040287 0.012310 0.000000 
0.037846 0.012108 0.000000 
0.035405 0.011861 0.000000 
0.032962 0.011567 0.000000 
0.030517 0.011221 0.000000 
0.028067 0.010817 0.000000 
0.025610 0.010348 0.000000 
0.023140 0.009807 0.000000 
0.020653 0.009182 0.000000 
0.018139 0.008462 0.000000 
0.015585 0.007629 0.000000 
0.012973 0.006661 0.000000 
0.010267 0.005524 0.000000 
0.007402 0.004152 0.000000 
0.004195 0.002495 0.000000 
0.000000 0.000000 0.000000 
0.000000 0.000000 0.000000 
0.000000 0.000000 0.000000 
0.000000 0.000000 0.000000 
0.000000 0.000000 0.000000 
0.000000 0.000000 0.000000 
0.000000 0.000000 0.000000 
0.000000 0.000000 0.000000 
0.000000 0.000000 0.000000 
0.000000 0.000000 0.000000 
0.000000 0.000000 0.000000 
0.000000 0.000000 0.000000 
0.000000 0.000000 0.000000 
0.000000 0.000000 0.000000 
0.000000 0.000000 0.000000 
0.000000 0.000000 0.000000 
0.000000 0.000000 0.000000 
0.000000 0.000000 0.000000 
0.000000 0.000000 0.000000 
0.000000 0.000000 0.000000 
0.000000 0.000000 0.000000 
0.000000 0.000000 0.000000 
0.000000 0.000000 0.000000 
0.000000 0.000000 0.000000 
0.000000 0.000000 0.000000 
0.000000 0.000000 0.000000 
0.000000 0.000000 0.000000 
0.000000 0.000000 0.000000 
0.000000 0.000000 0.000000 
0.000000 0.000000 0.000000 
0.000000 0.000000 0.000000 
0.000000 0.000000 0.000000 
0.000000 0.000000 0.000000 
0.000000 0.000000 0.000000 
0.000000 0.000000 0.000000 
0.000000 0.000000 0.000000 
0.000000 0.000000 0.000000 
0.000000 0.000000 0.000000 
0.000000 0.000000 0.000000 
0.003039 0.001716 0.000000 
0.006222 0.003446 0.000000 
0.009205 0.004831 0.000000 
0.012035 0.005992 0.000000 
0.014760 0.006976 0.000000 
0.017414 0.007821 0.000000 
0.020016 0.008549 0.000000 
0.022582 0.009180 0.000000 
0.025122 0.009725 0.000000 
0.027643 0.010197 0.000000 
0.030150 0.010603 0.000000 
0.032647 0.010951 0.000000 
0.035138 0.011246 0.000000 
0.037624 0.011492 0.000000 
0.040106 0.011695 0.000000 
0.042587 0.011857 0.000000 
0.045066 0.011980 0.000000 
0.047544 0.012067 0.000000 
0.050022 0.012118 0.000000 
0.052500 0.012135 0.000000 
0.054978 0.012118 0.000000 
0.057456 0.012067 0.000000 
0.059934 0.011980 0.000000 
0.062413 0.011857 0.000000 
0.064894 0.011695 0.000000 
0.067376 0.011492 0.000000 
0.069862 0.011246 0.000000 
0.072353 0.010951 0.000000 
0.074850 0.010603 0.000000 
0.077357 0.010197 0.000000 
0.079878 0.009725 0.000000 
0.082418 0.009180 0.000000 
0.084984 0.008549 0.000000 
0.087586 0.007821 0.000000 
0.090240 0.006976 0.000000 
0.092965 0.005992 0.000000 
0.095795 0.004831 0.000000 
0.098778 0.003446 0.000000 
0.101961 0.001716 0.000000 
0.002760 0.001392 0.000000 
0.005615 0.002856 0.000000 
0.008504 0.004194 0.000000 
0.011334 0.005342 0.000000 
0.014098 0.006328 0.000000 
0.016802 0.007176 0.000000 
0.019461 0.007909 0.000000 
0.022083 0.008544 0.000000 
0.024676 0.009093 0.000000 
0.027249 0.009567 0.000000 
0.029804 0.009975 0.000000 
0.032348 0.010324 0.000000 
0.034881 0.010620 0.000000 
0.037408 0.010867 0.000000 
0.039930 0.011071 0.000000 
0.042448 0.011233 0.000000 
0.044963 0.011356 0.000000 
0.047476 0.011443 0.000000 
0.049988 0.011494 0.000000 
0.052500 0.011512 0.000000 
0.055012 0.011494 0.000000 
0.057524 0.011443 0.000000 
0.060037 0.011356 0.000000 
0.062552 0.011233 0.000000 
0.065070 0.011071 0.000000 
0.067592 0.010867 0.000000 
0.070119 0.010620 0.000000 
0.072652 0.010324 0.000000 
0.075196 0.009975 0.000000 
0.077751 0.009567 0.000000 
0.080324 0.009093 0.000000 
0.082917 0.008544 0.000000 
0.085539 0.007909 0.000000 
0.088198 0.007176 0.000000 
0.090902 0.006328 0.000000 
0.093666 0.005342 0.000000 
0.096496 0.004194 0.000000 
0.099385 0.002856 0.000000 
0.102240 0.001392 0.000000 
0.002617 0.001200 0.000000 
0.005320 0.002457 0.000000 
0.008077 0.003663 0.000000 
0.010848 0.004754 0.000000 
0.013596 0.005714 0.000000 
0.016313 0.006551 0.000000 
0.018997 0.007279 0.000000 
0.021653 0.007911 0.000000 
0.024284 0.008460 0.000000 
0.026895 0.008934 0.000000 
0.029489 0.009342 0.000000 
0.032071 0.009692 0.000000 
0.034642 0.009988 0.000000 
0.037205 0.010235 0.000000 
0.039763 0.010439 0.000000 
0.042315 0.010601 0.000000 
0.044864 0.010724 0.000000 
0.047411 0.010811 0.000000 
0.049956 0.010863 0.000000 
0.052500 0.010880 0.000000 
0.055044 0.010863 0.000000 
0.057589 0.010811 0.000000 
0.060136 0.010724 0.000000 
0.062685 0.010601 0.000000 
0.065237 0.010439 0.000000 
0.067795 0.010235 0.000000 
0.070358 0.009988 0.000000 
0.072929 0.009692 0.000000 
0.075511 0.009342 0.000000 
0.078105 0.008934 0.000000 
0.080716 0.008460 0.000000 
0.083347 0.007911 0.000000 
0.086003 0.007279 0.000000 
0.088687 0.006551 0.000000 
0.091404 0.005714 0.000000 
0.094152 0.004754 0.000000 
0.096923 0.003663 0.000000 
0.099680 0.002457 0.000000 
0.102383 0.001200 0.000000 
0.002538 0.001060 0.000000 
0.005147 0.002160 0.000000 
0.007816 0.003237 0.000000 
0.010518 0.004243 0.000000 
0.013230 0.005153 0.000000 
0.015934 0.005960 0.000000 
0.018623 0.006671 0.000000 
0.021294 0.007293 0.000000 
0.023948 0.007835 0.000000 
0.026585 0.008305 0.000000 
0.029209 0.008710 0.000000 
0.031822 0.009058 0.000000 
0.034424 0.009352 0.000000 
0.037019 0.009599 0.000000 
0.039608 0.009801 0.000000 
0.042192 0.009963 0.000000 
0.044772 0.010086 0.000000 
0.047349 0.010173 0.000000 
0.049925 0.010224 0.000000 
0.052500 0.010241 0.000000 
0.055075 0.010224 0.000000 
0.057651 0.010173 0.000000 
0.060228 0.010086 0.000000 
0.062808 0.009963 0.000000 
0.065392 0.009801 0.000000 
0.067981 0.009599 0.000000 
0.070576 0.009352 0.000000 
0.073178 0.009058 0.000000 
0.075791 0.008710 0.000000 
0.078415 0.008305 0.000000 
0.081052 0.007835 0.000000 
0.083706 0.007293 0.000000 
0.086377 0.006671 0.000000 
0.089066 0.005960 0.000000 
0.091770 0.005153 0.000000 
0.094482 0.004243 0.000000 
0.097184 0.003237 0.000000 
0.099853 0.002160 0.000000 
0.102462 0.001060 0.000000 
0.002489 0.000948 0.000000 
0.005040 0.001922 0.000000 
0.007646 0.002886 0.000000 
0.010294 0.003802 0.000000 
0.012966 0.004647 0.000000 
0.015648 0.005412 0.000000 
0.018328 0.006093 0.000000 
0.021002 0.006695 0.000000 
0.023667 0.007224 0.000000 
0.026322 0.007684 0.000000 
0.028966 0.008083 0.000000 
0.031602 0.008426 0.000000 
0.034230 0.008717 0.000000 
0.036852 0.008961 0.000000 
0.039468 0.009161 0.000000 
0.042079 0.009321 0.000000 
0.044687 0.009443 0.000000 
0.047293 0.009529 0.000000 
0.049897 0.009580 0.000000 
0.052500 0.009597 0.000000 
0.055103 0.009580 0.000000 
0.057707 0.009529 0.000000 
0.060313 0.009443 0.000000 
0.062921 0.009321 0.000000 
0.065532 0.009161 0.000000 
0.068148 0.008961 0.000000 
0.070770 0.008717 0.000000 
0.073398 0.008426 0.000000 
0.076034 0.008083 0.000000 
0.078678 0.007684 0.000000 
0.081333 0.007224 0.000000 
0.083998 0.006695 0.000000 
0.086672 0.006093 0.000000 
0.089352 0.005412 0.000000 
0.092034 0.004647 0.000000 
0.094706 0.003802 0.000000 
0.097354 0.002886 0.000000 
0.099960 0.001922 0.000000 
0.102511 0.000948 0.000000 
0.002458 0.000852 0.000000 
0.004969 0.001723 0.000000 
0.007533 0.002585 0.000000 
0.010139 0.003415 0.000000 
0.012776 0.004192 0.000000 
0.015433 0.004905 0.000000 
0.018100 0.005549 0.000000 
0.020769 0.006124 0.000000 
0.023437 0.006632 0.000000 
0.026101 0.007078 0.000000 
0.028760 0.007465 0.000000 
0.031413 0.007799 0.000000 
0.034061 0.008084 0.000000 
0.036704 0.008323 0.000000 
0.039343 0.008520 0.000000 
0.041979 0.008677 0.000000 
0.044612 0.008797 0.000000 
0.047242 0.008882 0.000000 
0.049871 0.008932 0.000000 
0.052500 0.008948 0.000000 
0.055129 0.008932 0.000000 
0.057758 0.008882 0.000000 
0.060388 0.008797 0.000000 
0.063021 0.008677 0.000000 
0.065657 0.008520 0.000000 
0.068296 0.008323 0.000000 
0.070939 0.008084 0.000000 
0.073587 0.007799 0.000000 
0.076240 0.007465 0.000000 
0.078899 0.007078 0.000000 
0.081563 0.006632 0.000000 
0.084231 0.006124 0.000000 
0.086900 0.005549 0.000000 
0.089567 0.004905 0.000000 
0.092224 0.004192 0.000000 
0.094861 0.003415 0.000000 
0.097467 0.002585 0.000000 
0.100031 0.001723 0.000000 
0.102542 0.000852 0.000000 
0.002436 0.000768 0.000000 
0.004922 0.001548 0.000000 
0.007455 0.002321 0.000000 
0.010030 0.003070 0.000000 
0.012639 0.003779 0.000000 
0.015273 0.004437 0.000000 
0.017924 0.005037 0.000000 
0.020586 0.005578 0.000000 
0.023252 0.006061 0.000000 
0.025920 0.006487 0.000000 
0.028587 0.006859 0.000000 
0.031253 0.007181 0.000000 
0.033916 0.007457 0.000000 
0.036577 0.007689 0.000000 
0.039235 0.007880 0.000000 
0.041891 0.008033 0.000000 
0.044545 0.008150 0.000000 
0.047197 0.008232 0.000000 
0.049849 0.008281 0.000000 
0.052500 0.008297 0.000000 
0.055151 0.008281 0.000000 
0.057803 0.008232 0.000000 
0.060455 0.008150 0.000000 
0.063109 0.008033 0.000000 
0.065765 0.007880 0.000000 
0.068423 0.007689 0.000000 
0.071084 0.007457 0.000000 
0.073747 0.007181 0.000000 
0.076413 0.006859 0.000000 
0.079080 0.006487 0.000000 
0.081748 0.006061 0.000000 
0.084414 0.005578 0.000000 
0.087076 0.005037 0.000000 
0.089727 0.004437 0.000000 
0.092361 0.003779 0.000000 
0.094970 0.003070 0.000000 
0.097545 0.002321 0.000000 
0.100078 0.001548 0.000000 
0.102564 0.000768 0.000000 
0.002422 0.000692 0.000000 
0.004889 0.001391 0.000000 
0.007400 0.002084 0.000000 
0.009952 0.002758 0.000000 
0.012539 0.003400 0.000000 
0.015154 0.004002 0.000000 
0.017791 0.004556 0.000000 
0.020442 0.005059 0.000000 
0.023104 0.005511 0.000000 
0.025773 0.005913 0.000000 
0.028445 0.006266 0.000000 
0.031119 0.006573 0.000000 
0.033794 0.006837 0.000000 
0.036468 0.007059 0.000000 
0.039142 0.007243 0.000000 
0.041815 0.007390 0.000000 
0.044487 0.007503 0.000000 
0.047158 0.007582 0.000000 
0.049829 0.007630 0.000000 
0.052500 0.007645 0.000000 
0.055171 0.007630 0.000000 
0.057842 0.007582 0.000000 
0.060513 0.007503 0.000000 
0.063185 0.007390 0.000000 
0.065858 0.007243 0.000000 
0.068532 0.007059 0.000000 
0.071206 0.006837 0.000000 
0.073881 0.006573 0.000000 
0.076555 0.006266 0.000000 
0.079227 0.005913 0.000000 
0.081896 0.005511 0.000000 
0.084558 0.005059 0.000000 
0.087209 0.004556 0.000000 
0.089846 0.004002 0.000000 
0.092461 0.003400 0.000000 
0.095048 0.002758 0.000000 
0.097600 0.002084 0.000000 
0.100111 0.001391 0.000000 
0.102578 0.000692 0.000000 
0.002412 0.000622 0.000000 
0.004866 0.001247 0.000000 
0.007362 0.001867 0.000000 
0.009896 0.002471 0.000000 
0.012466 0.003049 0.000000 
0.015065 0.003594 0.000000 
0.017689 0.004100 0.000000 
0.020331 0.004563 0.000000 
0.022988 0.004982 0.000000 
0.025655 0.005356 0.000000 
0.028329 0.005687 0.000000 
0.031009 0.005976 0.000000 
0.033692 0.006225 0.000000 
0.036377 0.006436 0.000000 
0.039063 0.006610 0.000000 
0.041750 0.006750 0.000000 
0.044437 0.006858 0.000000 
0.047125 0.006933 0.000000 
0.049812 0.006979 0.000000 
0.052500 0.006994 0.000000 
0.055188 0.006979 0.000000 
0.057875 0.006933 0.000000 
0.060563 0.006858 0.000000 
0.063250 0.006750 0.000000 
0.065937 0.006610 0.000000 
0.068623 0.006436 0.000000 
0.071308 0.006225 0.000000 
0.073991 0.005976 0.000000 
0.076671 0.005687 0.000000 
0.079345 0.005356 0.000000 
0.082012 0.004982 0.000000 
0.084669 0.004563 0.000000 
0.087311 0.004100 0.000000 
0.089935 0.003594 0.000000 
0.092534 0.003049 0.000000 
0.095104 0.002471 0.000000 
0.097638 0.001867 0.000000 
0.100134 0.001247 0.000000 
0.102588 0.000622 0.000000 
0.002405 0.000555 0.000000 
0.004850 0.001113 0.000000 
0.007335 0.001664 0.000000 
0.009856 0.002203 0.000000 
0.012413 0.002720 0.000000 
0.014999 0.003210 0.000000 
0.017612 0.003668 0.000000 
0.020246 0.004089 0.000000 
0.022897 0.004472 0.000000 
0.025561 0.004817 0.000000 
0.028236 0.005122 0.000000 
0.030919 0.005390 0.000000 
0.033608 0.005622 0.000000 
0.036301 0.005819 0.000000 
0.038997 0.005983 0.000000 
0.041696 0.006114 0.000000 
0.044396 0.006215 0.000000 
0.047097 0.006287 0.000000 
0.049798 0.006329 0.000000 
0.052500 0.006343 0.000000 
0.055202 0.006329 0.000000 
0.057903 0.006287 0.000000 
0.060604 0.006215 0.000000 
0.063304 0.006114 0.000000 
0.066003 0.005983 0.000000 
0.068699 0.005819 0.000000 
0.071392 0.005622 0.000000 
0.074081 0.005390 0.000000 
0.076764 0.005122 0.000000 
0.079439 0.004817 0.000000 
0.082103 0.004472 0.000000 
0.084754 0.004089 0.000000 
0.087388 0.003668 0.000000 
0.090001 0.003210 0.000000 
0.092587 0.002720 0.000000 
0.095144 0.002203 0.000000 
0.097665 0.001664 0.000000 
0.100150 0.001113 0.000000 
0.102595 0.000555 0.000000 
0.002401 0.000493 0.000000 
0.004839 0.000986 0.000000 
0.007315 0.001474 0.000000 
0.009828 0.001950 0.000000 
0.012374 0.002409 0.000000 
0.014950 0.002845 0.000000 
0.017554 0.003255 0.000000 
0.020180 0.003633 0.000000 
0.022826 0.003979 0.000000 
0.025488 0.004292 0.000000 
0.028163 0.004571 0.000000 
0.030847 0.004816 0.000000 
0.033540 0.005029 0.000000 
0.036239 0.005210 0.000000 
0.038943 0.005361 0.000000 
0.041651 0.005483 0.000000 
0.044361 0.005576 0.000000 
0.047073 0.005643 0.000000 
0.049786 0.005682 0.000000 
0.052500 0.005695 0.000000 
0.055214 0.005682 0.000000 
0.057927 0.005643 0.000000 
0.060639 0.005576 0.000000 
0.063349 0.005483 0.000000 
0.066057 0.005361 0.000000 
0.068761 0.005210 0.000000 
0.071460 0.005029 0.000000 
0.074153 0.004816 0.000000 
0.076837 0.004571 0.000000 
0.079512 0.004292 0.000000 
0.082174 0.003979 0.000000 
0.084820 0.003633 0.000000 
0.087446 0.003255 0.000000 
0.090050 0.002845 0.000000 
0.092626 0.002409 0.000000 
0.095172 0.001950 0.000000 
0.097685 0.001474 0.000000 
0.100161 0.000986 0.000000 
0.102599 0.000493 0.000000 
0.002397 0.000433 0.000000 
0.004832 0.000865 0.000000 
0.007302 0.001292 0.000000 
0.009807 0.001709 0.000000 
0.012345 0.002112 0.000000 
0.014914 0.002496 0.000000 
0.017510 0.002858 0.000000 
0.020131 0.003193 0.000000 
0.022772 0.003502 0.000000 
0.025431 0.003781 0.000000 
0.028104 0.004031 0.000000 
0.030790 0.004252 0.000000 
0.033486 0.004445 0.000000 
0.036190 0.004609 0.000000 
0.038899 0.004746 0.000000 
0.041614 0.004857 0.000000 
0.044333 0.004942 0.000000 
0.047054 0.005002 0.000000 
0.049776 0.005038 0.000000 
0.052500 0.005050 0.000000 
0.055224 0.005038 0.000000 
0.057946 0.005002 0.000000 
0.060667 0.004942 0.000000 
0.063386 0.004857 0.000000 
0.066101 0.004746 0.000000 
0.068810 0.004609 0.000000 
0.071514 0.004445 0.000000 
0.074210 0.004252 0.000000 
0.076896 0.004031 0.000000 
0.079569 0.003781 0.000000 
0.082228 0.003502 0.000000 
0.084869 0.003193 0.000000 
0.087490 0.002858 0.000000 
0.090086 0.002496 0.000000 
0.092655 0.002112 0.000000 
0.095193 0.001709 0.000000 
0.097698 0.001292 0.000000 
0.100168 0.000865 0.000000 
0.102603 0.000433 0.000000 
0.002395 0.000375 0.000000 
0.004826 0.000748 0.000000 
0.007292 0.001118 0.000000 
0.009793 0.001478 0.000000 
0.012325 0.001827 0.000000 
0.014888 0.002160 0.000000 
0.017478 0.002474 0.000000 
0.020094 0.002767 0.000000 
0.022731 0.003037 0.000000 
0.025387 0.003282 0.000000 
0.028059 0.003503 0.000000 
0.030745 0.003698 0.000000 
0.033443 0.003869 0.000000 
0.036150 0.004015 0.000000 
0.038864 0.004137 0.000000 
0.041585 0.004236 0.000000 
0.044310 0.004312 0.000000 
0.047038 0.004366 0.000000 
0.049769 0.004398 0.000000 
0.052500 0.004409 0.000000 
0.055231 0.004398 0.000000 
0.057962 0.004366 0.000000 
0.060690 0.004312 0.000000 
0.063415 0.004236 0.000000 
0.066136 0.004137 0.000000 
0.068850 0.004015 0.000000 
0.071557 0.003869 0.000000 
0.074255 0.003698 0.000000 
0.076941 0.003503 0.000000 
0.079613 0.003282 0.000000 
0.082269 0.003037 0.000000 
0.084906 0.002767 0.000000 
0.087522 0.002474 0.000000 
0.090112 0.002160 0.000000 
0.092675 0.001827 0.000000 
0.095207 0.001478 0.000000 
0.097708 0.001118 0.000000 
0.100174 0.000748 0.000000 
0.102605 0.000375 0.000000 
0.002394 0.000319 0.000000 
0.004823 0.000636 0.000000 
0.007286 0.000949 0.000000 
0.009782 0.001255 0.000000 
0.012310 0.001551 0.000000 
0.014869 0.001834 0.000000 
0.017455 0.002102 0.000000 
0.020066 0.002352 0.000000 
0.022700 0.002584 0.000000 
0.025353 0.002794 0.000000 
0.028025 0.002984 0.000000 
0.030711 0.003153 0.000000 
0.033409 0.003301 0.000000 
0.036119 0.003427 0.000000 
0.038837 0.003534 0.000000 
0.041562 0.003620 0.000000 
0.044292 0.003686 0.000000 
0.047026 0.003733 0.000000 
0.049762 0.003761 0.000000 
0.052500 0.003771 0.000000 
0.055238 0.003761 0.000000 
0.057974 0.003733 0.000000 
0.060708 0.003686 0.000000 
0.063438 0.003620 0.000000 
0.066163 0.003534 0.000000 
0.068881 0.003427 0.000000 
0.071591 0.003301 0.000000 
0.074289 0.003153 0.000000 
0.076975 0.002984 0.000000 
0.079647 0.002794 0.000000 
0.082300 0.002584 0.000000 
0.084934 0.002352 0.000000 
0.087545 0.002102 0.000000 
0.090131 0.001834 0.000000 
0.092690 0.001551 0.000000 
0.095218 0.001255 0.000000 
0.097714 0.000949 0.000000 
0.100177 0.000636 0.000000 
0.102606 0.000319 0.000000 
0.002394 0.000264 0.000000 
0.004821 0.000526 0.000000 
0.007282 0.000785 0.000000 